+ 0.1 2 0 cbr 1000 ------- 0 2.0 1.0 0 0
- 0.1 2 0 cbr 1000 ------- 0 2.0 1.0 0 0
+ 0.1 2 0 cbr 1000 ------- 0 2.0 1.0 1 1
+ 0.1 2 0 cbr 1000 ------- 0 2.0 1.0 2 2
+ 0.1 2 0 cbr 1000 ------- 0 2.0 1.0 3 3
+ 0.1 2 0 cbr 1000 ------- 0 2.0 1.0 4 4
+ 0.1 2 0 cbr 1000 ------- 0 2.0 1.0 5 5
+ 0.1 2 0 cbr 1000 ------- 0 2.0 1.0 6 6
+ 0.1 2 0 cbr 1000 ------- 0 2.1 1.0 0 7
+ 0.1 2 0 cbr 1000 ------- 0 2.1 1.0 1 8
+ 0.1 2 0 cbr 1000 ------- 0 2.1 1.0 2 9
+ 0.1 2 0 cbr 1000 ------- 0 2.1 1.0 3 10
- 0.100667 2 0 cbr 1000 ------- 0 2.0 1.0 1 1
- 0.101333 2 0 cbr 1000 ------- 0 2.0 1.0 2 2
- 0.102 2 0 cbr 1000 ------- 0 2.0 1.0 3 3
- 0.102667 2 0 cbr 1000 ------- 0 2.0 1.0 4 4
- 0.103333 2 0 cbr 1000 ------- 0 2.0 1.0 5 5
- 0.104 2 0 cbr 1000 ------- 0 2.0 1.0 6 6
- 0.104667 2 0 cbr 1000 ------- 0 2.1 1.0 0 7
- 0.105333 2 0 cbr 1000 ------- 0 2.1 1.0 1 8
- 0.106 2 0 cbr 1000 ------- 0 2.1 1.0 2 9
- 0.106667 2 0 cbr 1000 ------- 0 2.1 1.0 3 10
+ 0.15 2 0 cbr 1000 ------- 0 2.1 1.0 4 11
- 0.15 2 0 cbr 1000 ------- 0 2.1 1.0 4 11
+ 0.15 2 0 cbr 1000 ------- 0 2.1 1.0 5 12
+ 0.15 2 0 cbr 1000 ------- 0 2.1 1.0 6 13
+ 0.15 2 0 cbr 1000 ------- 0 2.1 1.0 7 14
- 0.150667 2 0 cbr 1000 ------- 0 2.1 1.0 5 12
- 0.151333 2 0 cbr 1000 ------- 0 2.1 1.0 6 13
- 0.152 2 0 cbr 1000 ------- 0 2.1 1.0 7 14
+ 0.18 2 0 cbr 1000 ------- 0 2.0 1.0 7 15
- 0.18 2 0 cbr 1000 ------- 0 2.0 1.0 7 15
+ 0.18 2 0 cbr 1000 ------- 0 2.0 1.0 8 16
+ 0.18 2 0 cbr 1000 ------- 0 2.0 1.0 9 17
+ 0.18 2 0 cbr 1000 ------- 0 2.0 1.0 10 18
+ 0.18 2 0 cbr 1000 ------- 0 2.0 1.0 11 19
+ 0.18 2 0 cbr 1000 ------- 0 2.0 1.0 12 20
+ 0.18 2 0 cbr 1000 ------- 0 2.0 1.0 13 21
- 0.180667 2 0 cbr 1000 ------- 0 2.0 1.0 8 16
- 0.181333 2 0 cbr 1000 ------- 0 2.0 1.0 9 17
- 0.182 2 0 cbr 1000 ------- 0 2.0 1.0 10 18
- 0.182667 2 0 cbr 1000 ------- 0 2.0 1.0 11 19
- 0.183333 2 0 cbr 1000 ------- 0 2.0 1.0 12 20
- 0.184 2 0 cbr 1000 ------- 0 2.0 1.0 13 21
+ 0.2 2 0 cbr 1000 ------- 0 2.1 1.0 8 22
- 0.2 2 0 cbr 1000 ------- 0 2.1 1.0 8 22
+ 0.2 2 0 cbr 1000 ------- 0 2.1 1.0 9 23
+ 0.2 2 0 cbr 1000 ------- 0 2.1 1.0 10 24
+ 0.2 2 0 cbr 1000 ------- 0 2.1 1.0 11 25
r 0.200667 2 0 cbr 1000 ------- 0 2.0 1.0 0 0
+ 0.200667 0 1 cbr 1000 ------- 0 2.0 1.0 0 0
- 0.200667 0 1 cbr 1000 ------- 0 2.0 1.0 0 0
- 0.200667 2 0 cbr 1000 ------- 0 2.1 1.0 9 23
r 0.201333 2 0 cbr 1000 ------- 0 2.0 1.0 1 1
+ 0.201333 0 1 cbr 1000 ------- 0 2.0 1.0 1 1
- 0.201333 2 0 cbr 1000 ------- 0 2.1 1.0 10 24
- 0.202 0 1 cbr 1000 ------- 0 2.0 1.0 1 1
r 0.202 2 0 cbr 1000 ------- 0 2.0 1.0 2 2
+ 0.202 0 1 cbr 1000 ------- 0 2.0 1.0 2 2
- 0.202 2 0 cbr 1000 ------- 0 2.1 1.0 11 25
r 0.202667 2 0 cbr 1000 ------- 0 2.0 1.0 3 3
+ 0.202667 0 1 cbr 1000 ------- 0 2.0 1.0 3 3
r 0.203333 2 0 cbr 1000 ------- 0 2.0 1.0 4 4
+ 0.203333 0 1 cbr 1000 ------- 0 2.0 1.0 4 4
- 0.203333 0 1 cbr 1000 ------- 0 2.0 1.0 2 2
r 0.204 2 0 cbr 1000 ------- 0 2.0 1.0 5 5
+ 0.204 0 1 cbr 1000 ------- 0 2.0 1.0 5 5
- 0.204667 0 1 cbr 1000 ------- 0 2.0 1.0 3 3
r 0.204667 2 0 cbr 1000 ------- 0 2.0 1.0 6 6
+ 0.204667 0 1 cbr 1000 ------- 0 2.0 1.0 6 6
r 0.205333 2 0 cbr 1000 ------- 0 2.1 1.0 0 7
+ 0.205333 0 1 cbr 1000 ------- 0 2.1 1.0 0 7
r 0.206 2 0 cbr 1000 ------- 0 2.1 1.0 1 8
+ 0.206 0 1 cbr 1000 ------- 0 2.1 1.0 1 8
- 0.206 0 1 cbr 1000 ------- 0 2.0 1.0 4 4
r 0.206667 2 0 cbr 1000 ------- 0 2.1 1.0 2 9
+ 0.206667 0 1 cbr 1000 ------- 0 2.1 1.0 2 9
- 0.207333 0 1 cbr 1000 ------- 0 2.0 1.0 5 5
r 0.207333 2 0 cbr 1000 ------- 0 2.1 1.0 3 10
+ 0.207333 0 1 cbr 1000 ------- 0 2.1 1.0 3 10
- 0.208667 0 1 cbr 1000 ------- 0 2.0 1.0 6 6
- 0.21 0 1 cbr 1000 ------- 0 2.1 1.0 0 7
- 0.211333 0 1 cbr 1000 ------- 0 2.1 1.0 1 8
- 0.212667 0 1 cbr 1000 ------- 0 2.1 1.0 2 9
- 0.214 0 1 cbr 1000 ------- 0 2.1 1.0 3 10
+ 0.25 2 0 cbr 1000 ------- 0 2.1 1.0 12 26
- 0.25 2 0 cbr 1000 ------- 0 2.1 1.0 12 26
+ 0.25 2 0 cbr 1000 ------- 0 2.1 1.0 13 27
+ 0.25 2 0 cbr 1000 ------- 0 2.1 1.0 14 28
+ 0.25 2 0 cbr 1000 ------- 0 2.1 1.0 15 29
- 0.250667 2 0 cbr 1000 ------- 0 2.1 1.0 13 27
r 0.250667 2 0 cbr 1000 ------- 0 2.1 1.0 4 11
+ 0.250667 0 1 cbr 1000 ------- 0 2.1 1.0 4 11
- 0.250667 0 1 cbr 1000 ------- 0 2.1 1.0 4 11
- 0.251333 2 0 cbr 1000 ------- 0 2.1 1.0 14 28
r 0.251333 2 0 cbr 1000 ------- 0 2.1 1.0 5 12
+ 0.251333 0 1 cbr 1000 ------- 0 2.1 1.0 5 12
- 0.252 2 0 cbr 1000 ------- 0 2.1 1.0 15 29
r 0.252 2 0 cbr 1000 ------- 0 2.1 1.0 6 13
+ 0.252 0 1 cbr 1000 ------- 0 2.1 1.0 6 13
- 0.252 0 1 cbr 1000 ------- 0 2.1 1.0 5 12
r 0.252667 2 0 cbr 1000 ------- 0 2.1 1.0 7 14
+ 0.252667 0 1 cbr 1000 ------- 0 2.1 1.0 7 14
- 0.253333 0 1 cbr 1000 ------- 0 2.1 1.0 6 13
- 0.254667 0 1 cbr 1000 ------- 0 2.1 1.0 7 14
+ 0.26 2 0 cbr 1000 ------- 0 2.0 1.0 14 30
- 0.26 2 0 cbr 1000 ------- 0 2.0 1.0 14 30
+ 0.26 2 0 cbr 1000 ------- 0 2.0 1.0 15 31
+ 0.26 2 0 cbr 1000 ------- 0 2.0 1.0 16 32
+ 0.26 2 0 cbr 1000 ------- 0 2.0 1.0 17 33
+ 0.26 2 0 cbr 1000 ------- 0 2.0 1.0 18 34
+ 0.26 2 0 cbr 1000 ------- 0 2.0 1.0 19 35
+ 0.26 2 0 cbr 1000 ------- 0 2.0 1.0 20 36
- 0.260667 2 0 cbr 1000 ------- 0 2.0 1.0 15 31
- 0.261333 2 0 cbr 1000 ------- 0 2.0 1.0 16 32
- 0.262 2 0 cbr 1000 ------- 0 2.0 1.0 17 33
- 0.262667 2 0 cbr 1000 ------- 0 2.0 1.0 18 34
- 0.263333 2 0 cbr 1000 ------- 0 2.0 1.0 19 35
- 0.264 2 0 cbr 1000 ------- 0 2.0 1.0 20 36
r 0.280667 2 0 cbr 1000 ------- 0 2.0 1.0 7 15
+ 0.280667 0 1 cbr 1000 ------- 0 2.0 1.0 7 15
- 0.280667 0 1 cbr 1000 ------- 0 2.0 1.0 7 15
r 0.281333 2 0 cbr 1000 ------- 0 2.0 1.0 8 16
+ 0.281333 0 1 cbr 1000 ------- 0 2.0 1.0 8 16
r 0.282 2 0 cbr 1000 ------- 0 2.0 1.0 9 17
+ 0.282 0 1 cbr 1000 ------- 0 2.0 1.0 9 17
- 0.282 0 1 cbr 1000 ------- 0 2.0 1.0 8 16
r 0.282667 2 0 cbr 1000 ------- 0 2.0 1.0 10 18
+ 0.282667 0 1 cbr 1000 ------- 0 2.0 1.0 10 18
r 0.283333 2 0 cbr 1000 ------- 0 2.0 1.0 11 19
+ 0.283333 0 1 cbr 1000 ------- 0 2.0 1.0 11 19
- 0.283333 0 1 cbr 1000 ------- 0 2.0 1.0 9 17
r 0.284 2 0 cbr 1000 ------- 0 2.0 1.0 12 20
+ 0.284 0 1 cbr 1000 ------- 0 2.0 1.0 12 20
r 0.284667 2 0 cbr 1000 ------- 0 2.0 1.0 13 21
+ 0.284667 0 1 cbr 1000 ------- 0 2.0 1.0 13 21
- 0.284667 0 1 cbr 1000 ------- 0 2.0 1.0 10 18
- 0.286 0 1 cbr 1000 ------- 0 2.0 1.0 11 19
- 0.287333 0 1 cbr 1000 ------- 0 2.0 1.0 12 20
- 0.288667 0 1 cbr 1000 ------- 0 2.0 1.0 13 21
+ 0.3 2 0 cbr 1000 ------- 0 2.1 1.0 16 37
- 0.3 2 0 cbr 1000 ------- 0 2.1 1.0 16 37
+ 0.3 2 0 cbr 1000 ------- 0 2.1 1.0 17 38
+ 0.3 2 0 cbr 1000 ------- 0 2.1 1.0 18 39
+ 0.3 2 0 cbr 1000 ------- 0 2.1 1.0 19 40
- 0.300667 2 0 cbr 1000 ------- 0 2.1 1.0 17 38
r 0.300667 2 0 cbr 1000 ------- 0 2.1 1.0 8 22
+ 0.300667 0 1 cbr 1000 ------- 0 2.1 1.0 8 22
- 0.300667 0 1 cbr 1000 ------- 0 2.1 1.0 8 22
- 0.301333 2 0 cbr 1000 ------- 0 2.1 1.0 18 39
r 0.301333 2 0 cbr 1000 ------- 0 2.1 1.0 9 23
+ 0.301333 0 1 cbr 1000 ------- 0 2.1 1.0 9 23
- 0.302 2 0 cbr 1000 ------- 0 2.1 1.0 19 40
r 0.302 2 0 cbr 1000 ------- 0 2.1 1.0 10 24
+ 0.302 0 1 cbr 1000 ------- 0 2.1 1.0 10 24
- 0.302 0 1 cbr 1000 ------- 0 2.1 1.0 9 23
r 0.302667 2 0 cbr 1000 ------- 0 2.1 1.0 11 25
+ 0.302667 0 1 cbr 1000 ------- 0 2.1 1.0 11 25
- 0.303333 0 1 cbr 1000 ------- 0 2.1 1.0 10 24
- 0.304667 0 1 cbr 1000 ------- 0 2.1 1.0 11 25
+ 0.34 2 0 cbr 1000 ------- 0 2.0 1.0 21 41
- 0.34 2 0 cbr 1000 ------- 0 2.0 1.0 21 41
+ 0.34 2 0 cbr 1000 ------- 0 2.0 1.0 22 42
+ 0.34 2 0 cbr 1000 ------- 0 2.0 1.0 23 43
+ 0.34 2 0 cbr 1000 ------- 0 2.0 1.0 24 44
+ 0.34 2 0 cbr 1000 ------- 0 2.0 1.0 25 45
+ 0.34 2 0 cbr 1000 ------- 0 2.0 1.0 26 46
+ 0.34 2 0 cbr 1000 ------- 0 2.0 1.0 27 47
- 0.340667 2 0 cbr 1000 ------- 0 2.0 1.0 22 42
- 0.341333 2 0 cbr 1000 ------- 0 2.0 1.0 23 43
- 0.342 2 0 cbr 1000 ------- 0 2.0 1.0 24 44
- 0.342667 2 0 cbr 1000 ------- 0 2.0 1.0 25 45
- 0.343333 2 0 cbr 1000 ------- 0 2.0 1.0 26 46
- 0.344 2 0 cbr 1000 ------- 0 2.0 1.0 27 47
+ 0.35 2 0 cbr 1000 ------- 0 2.1 1.0 20 48
- 0.35 2 0 cbr 1000 ------- 0 2.1 1.0 20 48
+ 0.35 2 0 cbr 1000 ------- 0 2.1 1.0 21 49
+ 0.35 2 0 cbr 1000 ------- 0 2.1 1.0 22 50
+ 0.35 2 0 cbr 1000 ------- 0 2.1 1.0 23 51
- 0.350667 2 0 cbr 1000 ------- 0 2.1 1.0 21 49
r 0.350667 2 0 cbr 1000 ------- 0 2.1 1.0 12 26
+ 0.350667 0 1 cbr 1000 ------- 0 2.1 1.0 12 26
- 0.350667 0 1 cbr 1000 ------- 0 2.1 1.0 12 26
- 0.351333 2 0 cbr 1000 ------- 0 2.1 1.0 22 50
r 0.351333 2 0 cbr 1000 ------- 0 2.1 1.0 13 27
+ 0.351333 0 1 cbr 1000 ------- 0 2.1 1.0 13 27
- 0.352 2 0 cbr 1000 ------- 0 2.1 1.0 23 51
r 0.352 2 0 cbr 1000 ------- 0 2.1 1.0 14 28
+ 0.352 0 1 cbr 1000 ------- 0 2.1 1.0 14 28
- 0.352 0 1 cbr 1000 ------- 0 2.1 1.0 13 27
r 0.352667 2 0 cbr 1000 ------- 0 2.1 1.0 15 29
+ 0.352667 0 1 cbr 1000 ------- 0 2.1 1.0 15 29
- 0.353333 0 1 cbr 1000 ------- 0 2.1 1.0 14 28
- 0.354667 0 1 cbr 1000 ------- 0 2.1 1.0 15 29
r 0.360667 2 0 cbr 1000 ------- 0 2.0 1.0 14 30
+ 0.360667 0 1 cbr 1000 ------- 0 2.0 1.0 14 30
- 0.360667 0 1 cbr 1000 ------- 0 2.0 1.0 14 30
r 0.361333 2 0 cbr 1000 ------- 0 2.0 1.0 15 31
+ 0.361333 0 1 cbr 1000 ------- 0 2.0 1.0 15 31
r 0.362 2 0 cbr 1000 ------- 0 2.0 1.0 16 32
+ 0.362 0 1 cbr 1000 ------- 0 2.0 1.0 16 32
- 0.362 0 1 cbr 1000 ------- 0 2.0 1.0 15 31
r 0.362667 2 0 cbr 1000 ------- 0 2.0 1.0 17 33
+ 0.362667 0 1 cbr 1000 ------- 0 2.0 1.0 17 33
r 0.363333 2 0 cbr 1000 ------- 0 2.0 1.0 18 34
+ 0.363333 0 1 cbr 1000 ------- 0 2.0 1.0 18 34
- 0.363333 0 1 cbr 1000 ------- 0 2.0 1.0 16 32
r 0.364 2 0 cbr 1000 ------- 0 2.0 1.0 19 35
+ 0.364 0 1 cbr 1000 ------- 0 2.0 1.0 19 35
r 0.364667 2 0 cbr 1000 ------- 0 2.0 1.0 20 36
+ 0.364667 0 1 cbr 1000 ------- 0 2.0 1.0 20 36
- 0.364667 0 1 cbr 1000 ------- 0 2.0 1.0 17 33
- 0.366 0 1 cbr 1000 ------- 0 2.0 1.0 18 34
- 0.367333 0 1 cbr 1000 ------- 0 2.0 1.0 19 35
- 0.368667 0 1 cbr 1000 ------- 0 2.0 1.0 20 36
+ 0.4 2 0 cbr 1000 ------- 0 2.1 1.0 24 52
- 0.4 2 0 cbr 1000 ------- 0 2.1 1.0 24 52
+ 0.4 2 0 cbr 1000 ------- 0 2.1 1.0 25 53
+ 0.4 2 0 cbr 1000 ------- 0 2.1 1.0 26 54
+ 0.4 2 0 cbr 1000 ------- 0 2.1 1.0 27 55
- 0.400667 2 0 cbr 1000 ------- 0 2.1 1.0 25 53
r 0.400667 2 0 cbr 1000 ------- 0 2.1 1.0 16 37
+ 0.400667 0 1 cbr 1000 ------- 0 2.1 1.0 16 37
- 0.400667 0 1 cbr 1000 ------- 0 2.1 1.0 16 37
- 0.401333 2 0 cbr 1000 ------- 0 2.1 1.0 26 54
r 0.401333 2 0 cbr 1000 ------- 0 2.1 1.0 17 38
+ 0.401333 0 1 cbr 1000 ------- 0 2.1 1.0 17 38
- 0.402 2 0 cbr 1000 ------- 0 2.1 1.0 27 55
r 0.402 2 0 cbr 1000 ------- 0 2.1 1.0 18 39
+ 0.402 0 1 cbr 1000 ------- 0 2.1 1.0 18 39
r 0.402 0 1 cbr 1000 ------- 0 2.0 1.0 0 0
- 0.402 0 1 cbr 1000 ------- 0 2.1 1.0 17 38
r 0.402667 2 0 cbr 1000 ------- 0 2.1 1.0 19 40
+ 0.402667 0 1 cbr 1000 ------- 0 2.1 1.0 19 40
r 0.403333 0 1 cbr 1000 ------- 0 2.0 1.0 1 1
- 0.403333 0 1 cbr 1000 ------- 0 2.1 1.0 18 39
r 0.404667 0 1 cbr 1000 ------- 0 2.0 1.0 2 2
- 0.404667 0 1 cbr 1000 ------- 0 2.1 1.0 19 40
r 0.406 0 1 cbr 1000 ------- 0 2.0 1.0 3 3
r 0.407333 0 1 cbr 1000 ------- 0 2.0 1.0 4 4
r 0.408667 0 1 cbr 1000 ------- 0 2.0 1.0 5 5
r 0.41 0 1 cbr 1000 ------- 0 2.0 1.0 6 6
r 0.411333 0 1 cbr 1000 ------- 0 2.1 1.0 0 7
r 0.412667 0 1 cbr 1000 ------- 0 2.1 1.0 1 8
r 0.414 0 1 cbr 1000 ------- 0 2.1 1.0 2 9
r 0.415333 0 1 cbr 1000 ------- 0 2.1 1.0 3 10
+ 0.42 2 0 cbr 1000 ------- 0 2.0 1.0 28 56
- 0.42 2 0 cbr 1000 ------- 0 2.0 1.0 28 56
+ 0.42 2 0 cbr 1000 ------- 0 2.0 1.0 29 57
+ 0.42 2 0 cbr 1000 ------- 0 2.0 1.0 30 58
+ 0.42 2 0 cbr 1000 ------- 0 2.0 1.0 31 59
+ 0.42 2 0 cbr 1000 ------- 0 2.0 1.0 32 60
+ 0.42 2 0 cbr 1000 ------- 0 2.0 1.0 33 61
+ 0.42 2 0 cbr 1000 ------- 0 2.0 1.0 34 62
- 0.420667 2 0 cbr 1000 ------- 0 2.0 1.0 29 57
- 0.421333 2 0 cbr 1000 ------- 0 2.0 1.0 30 58
- 0.422 2 0 cbr 1000 ------- 0 2.0 1.0 31 59
- 0.422667 2 0 cbr 1000 ------- 0 2.0 1.0 32 60
- 0.423333 2 0 cbr 1000 ------- 0 2.0 1.0 33 61
- 0.424 2 0 cbr 1000 ------- 0 2.0 1.0 34 62
r 0.440667 2 0 cbr 1000 ------- 0 2.0 1.0 21 41
+ 0.440667 0 1 cbr 1000 ------- 0 2.0 1.0 21 41
- 0.440667 0 1 cbr 1000 ------- 0 2.0 1.0 21 41
r 0.441333 2 0 cbr 1000 ------- 0 2.0 1.0 22 42
+ 0.441333 0 1 cbr 1000 ------- 0 2.0 1.0 22 42
r 0.442 2 0 cbr 1000 ------- 0 2.0 1.0 23 43
+ 0.442 0 1 cbr 1000 ------- 0 2.0 1.0 23 43
- 0.442 0 1 cbr 1000 ------- 0 2.0 1.0 22 42
r 0.442667 2 0 cbr 1000 ------- 0 2.0 1.0 24 44
+ 0.442667 0 1 cbr 1000 ------- 0 2.0 1.0 24 44
r 0.443333 2 0 cbr 1000 ------- 0 2.0 1.0 25 45
+ 0.443333 0 1 cbr 1000 ------- 0 2.0 1.0 25 45
- 0.443333 0 1 cbr 1000 ------- 0 2.0 1.0 23 43
r 0.444 2 0 cbr 1000 ------- 0 2.0 1.0 26 46
+ 0.444 0 1 cbr 1000 ------- 0 2.0 1.0 26 46
r 0.444667 2 0 cbr 1000 ------- 0 2.0 1.0 27 47
+ 0.444667 0 1 cbr 1000 ------- 0 2.0 1.0 27 47
- 0.444667 0 1 cbr 1000 ------- 0 2.0 1.0 24 44
- 0.446 0 1 cbr 1000 ------- 0 2.0 1.0 25 45
- 0.447333 0 1 cbr 1000 ------- 0 2.0 1.0 26 46
- 0.448667 0 1 cbr 1000 ------- 0 2.0 1.0 27 47
+ 0.45 2 0 cbr 1000 ------- 0 2.1 1.0 28 63
- 0.45 2 0 cbr 1000 ------- 0 2.1 1.0 28 63
+ 0.45 2 0 cbr 1000 ------- 0 2.1 1.0 29 64
+ 0.45 2 0 cbr 1000 ------- 0 2.1 1.0 30 65
+ 0.45 2 0 cbr 1000 ------- 0 2.1 1.0 31 66
- 0.450667 2 0 cbr 1000 ------- 0 2.1 1.0 29 64
r 0.450667 2 0 cbr 1000 ------- 0 2.1 1.0 20 48
+ 0.450667 0 1 cbr 1000 ------- 0 2.1 1.0 20 48
- 0.450667 0 1 cbr 1000 ------- 0 2.1 1.0 20 48
- 0.451333 2 0 cbr 1000 ------- 0 2.1 1.0 30 65
r 0.451333 2 0 cbr 1000 ------- 0 2.1 1.0 21 49
+ 0.451333 0 1 cbr 1000 ------- 0 2.1 1.0 21 49
- 0.452 2 0 cbr 1000 ------- 0 2.1 1.0 31 66
r 0.452 2 0 cbr 1000 ------- 0 2.1 1.0 22 50
+ 0.452 0 1 cbr 1000 ------- 0 2.1 1.0 22 50
- 0.452 0 1 cbr 1000 ------- 0 2.1 1.0 21 49
r 0.452 0 1 cbr 1000 ------- 0 2.1 1.0 4 11
r 0.452667 2 0 cbr 1000 ------- 0 2.1 1.0 23 51
+ 0.452667 0 1 cbr 1000 ------- 0 2.1 1.0 23 51
r 0.453333 0 1 cbr 1000 ------- 0 2.1 1.0 5 12
- 0.453333 0 1 cbr 1000 ------- 0 2.1 1.0 22 50
- 0.454667 0 1 cbr 1000 ------- 0 2.1 1.0 23 51
r 0.454667 0 1 cbr 1000 ------- 0 2.1 1.0 6 13
r 0.456 0 1 cbr 1000 ------- 0 2.1 1.0 7 14
r 0.482 0 1 cbr 1000 ------- 0 2.0 1.0 7 15
r 0.483333 0 1 cbr 1000 ------- 0 2.0 1.0 8 16
r 0.484667 0 1 cbr 1000 ------- 0 2.0 1.0 9 17
r 0.486 0 1 cbr 1000 ------- 0 2.0 1.0 10 18
r 0.487333 0 1 cbr 1000 ------- 0 2.0 1.0 11 19
r 0.488667 0 1 cbr 1000 ------- 0 2.0 1.0 12 20
r 0.49 0 1 cbr 1000 ------- 0 2.0 1.0 13 21
+ 0.5 2 0 cbr 1000 ------- 0 2.1 1.0 32 67
- 0.5 2 0 cbr 1000 ------- 0 2.1 1.0 32 67
+ 0.5 2 0 cbr 1000 ------- 0 2.1 1.0 33 68
+ 0.5 2 0 cbr 1000 ------- 0 2.1 1.0 34 69
+ 0.5 2 0 cbr 1000 ------- 0 2.1 1.0 35 70
+ 0.5 2 0 cbr 1000 ------- 0 2.0 1.0 35 71
+ 0.5 2 0 cbr 1000 ------- 0 2.0 1.0 36 72
+ 0.5 2 0 cbr 1000 ------- 0 2.0 1.0 37 73
+ 0.5 2 0 cbr 1000 ------- 0 2.0 1.0 38 74
+ 0.5 2 0 cbr 1000 ------- 0 2.0 1.0 39 75
+ 0.5 2 0 cbr 1000 ------- 0 2.0 1.0 40 76
+ 0.5 2 0 cbr 1000 ------- 0 2.0 1.0 41 77
r 0.500667 2 0 cbr 1000 ------- 0 2.1 1.0 24 52
+ 0.500667 0 1 cbr 1000 ------- 0 2.1 1.0 24 52
- 0.500667 0 1 cbr 1000 ------- 0 2.1 1.0 24 52
- 0.500667 2 0 cbr 1000 ------- 0 2.1 1.0 33 68
r 0.501333 2 0 cbr 1000 ------- 0 2.1 1.0 25 53
+ 0.501333 0 1 cbr 1000 ------- 0 2.1 1.0 25 53
- 0.501333 2 0 cbr 1000 ------- 0 2.1 1.0 34 69
r 0.502 2 0 cbr 1000 ------- 0 2.1 1.0 26 54
+ 0.502 0 1 cbr 1000 ------- 0 2.1 1.0 26 54
- 0.502 0 1 cbr 1000 ------- 0 2.1 1.0 25 53
r 0.502 0 1 cbr 1000 ------- 0 2.1 1.0 8 22
- 0.502 2 0 cbr 1000 ------- 0 2.1 1.0 35 70
r 0.502667 2 0 cbr 1000 ------- 0 2.1 1.0 27 55
+ 0.502667 0 1 cbr 1000 ------- 0 2.1 1.0 27 55
- 0.502667 2 0 cbr 1000 ------- 0 2.0 1.0 35 71
- 0.503333 0 1 cbr 1000 ------- 0 2.1 1.0 26 54
r 0.503333 0 1 cbr 1000 ------- 0 2.1 1.0 9 23
- 0.503333 2 0 cbr 1000 ------- 0 2.0 1.0 36 72
- 0.504 2 0 cbr 1000 ------- 0 2.0 1.0 37 73
- 0.504667 0 1 cbr 1000 ------- 0 2.1 1.0 27 55
r 0.504667 0 1 cbr 1000 ------- 0 2.1 1.0 10 24
- 0.504667 2 0 cbr 1000 ------- 0 2.0 1.0 38 74
- 0.505333 2 0 cbr 1000 ------- 0 2.0 1.0 39 75
r 0.506 0 1 cbr 1000 ------- 0 2.1 1.0 11 25
- 0.506 2 0 cbr 1000 ------- 0 2.0 1.0 40 76
- 0.506667 2 0 cbr 1000 ------- 0 2.0 1.0 41 77
r 0.520667 2 0 cbr 1000 ------- 0 2.0 1.0 28 56
+ 0.520667 0 1 cbr 1000 ------- 0 2.0 1.0 28 56
- 0.520667 0 1 cbr 1000 ------- 0 2.0 1.0 28 56
r 0.521333 2 0 cbr 1000 ------- 0 2.0 1.0 29 57
+ 0.521333 0 1 cbr 1000 ------- 0 2.0 1.0 29 57
r 0.522 2 0 cbr 1000 ------- 0 2.0 1.0 30 58
+ 0.522 0 1 cbr 1000 ------- 0 2.0 1.0 30 58
- 0.522 0 1 cbr 1000 ------- 0 2.0 1.0 29 57
r 0.522667 2 0 cbr 1000 ------- 0 2.0 1.0 31 59
+ 0.522667 0 1 cbr 1000 ------- 0 2.0 1.0 31 59
r 0.523333 2 0 cbr 1000 ------- 0 2.0 1.0 32 60
+ 0.523333 0 1 cbr 1000 ------- 0 2.0 1.0 32 60
- 0.523333 0 1 cbr 1000 ------- 0 2.0 1.0 30 58
r 0.524 2 0 cbr 1000 ------- 0 2.0 1.0 33 61
+ 0.524 0 1 cbr 1000 ------- 0 2.0 1.0 33 61
r 0.524667 2 0 cbr 1000 ------- 0 2.0 1.0 34 62
+ 0.524667 0 1 cbr 1000 ------- 0 2.0 1.0 34 62
- 0.524667 0 1 cbr 1000 ------- 0 2.0 1.0 31 59
- 0.526 0 1 cbr 1000 ------- 0 2.0 1.0 32 60
- 0.527333 0 1 cbr 1000 ------- 0 2.0 1.0 33 61
- 0.528667 0 1 cbr 1000 ------- 0 2.0 1.0 34 62
+ 0.55 2 0 cbr 1000 ------- 0 2.1 1.0 36 78
- 0.55 2 0 cbr 1000 ------- 0 2.1 1.0 36 78
+ 0.55 2 0 cbr 1000 ------- 0 2.1 1.0 37 79
+ 0.55 2 0 cbr 1000 ------- 0 2.1 1.0 38 80
+ 0.55 2 0 cbr 1000 ------- 0 2.1 1.0 39 81
r 0.550667 2 0 cbr 1000 ------- 0 2.1 1.0 28 63
+ 0.550667 0 1 cbr 1000 ------- 0 2.1 1.0 28 63
- 0.550667 0 1 cbr 1000 ------- 0 2.1 1.0 28 63
- 0.550667 2 0 cbr 1000 ------- 0 2.1 1.0 37 79
r 0.551333 2 0 cbr 1000 ------- 0 2.1 1.0 29 64
+ 0.551333 0 1 cbr 1000 ------- 0 2.1 1.0 29 64
- 0.551333 2 0 cbr 1000 ------- 0 2.1 1.0 38 80
r 0.552 2 0 cbr 1000 ------- 0 2.1 1.0 30 65
+ 0.552 0 1 cbr 1000 ------- 0 2.1 1.0 30 65
- 0.552 0 1 cbr 1000 ------- 0 2.1 1.0 29 64
r 0.552 0 1 cbr 1000 ------- 0 2.1 1.0 12 26
- 0.552 2 0 cbr 1000 ------- 0 2.1 1.0 39 81
r 0.552667 2 0 cbr 1000 ------- 0 2.1 1.0 31 66
+ 0.552667 0 1 cbr 1000 ------- 0 2.1 1.0 31 66
- 0.553333 0 1 cbr 1000 ------- 0 2.1 1.0 30 65
r 0.553333 0 1 cbr 1000 ------- 0 2.1 1.0 13 27
- 0.554667 0 1 cbr 1000 ------- 0 2.1 1.0 31 66
r 0.554667 0 1 cbr 1000 ------- 0 2.1 1.0 14 28
r 0.556 0 1 cbr 1000 ------- 0 2.1 1.0 15 29
r 0.562 0 1 cbr 1000 ------- 0 2.0 1.0 14 30
r 0.563333 0 1 cbr 1000 ------- 0 2.0 1.0 15 31
r 0.564667 0 1 cbr 1000 ------- 0 2.0 1.0 16 32
r 0.566 0 1 cbr 1000 ------- 0 2.0 1.0 17 33
r 0.567333 0 1 cbr 1000 ------- 0 2.0 1.0 18 34
r 0.568667 0 1 cbr 1000 ------- 0 2.0 1.0 19 35
r 0.57 0 1 cbr 1000 ------- 0 2.0 1.0 20 36
+ 0.58 2 0 cbr 1000 ------- 0 2.0 1.0 42 82
- 0.58 2 0 cbr 1000 ------- 0 2.0 1.0 42 82
+ 0.58 2 0 cbr 1000 ------- 0 2.0 1.0 43 83
+ 0.58 2 0 cbr 1000 ------- 0 2.0 1.0 44 84
+ 0.58 2 0 cbr 1000 ------- 0 2.0 1.0 45 85
+ 0.58 2 0 cbr 1000 ------- 0 2.0 1.0 46 86
+ 0.58 2 0 cbr 1000 ------- 0 2.0 1.0 47 87
+ 0.58 2 0 cbr 1000 ------- 0 2.0 1.0 48 88
- 0.580667 2 0 cbr 1000 ------- 0 2.0 1.0 43 83
- 0.581333 2 0 cbr 1000 ------- 0 2.0 1.0 44 84
- 0.582 2 0 cbr 1000 ------- 0 2.0 1.0 45 85
- 0.582667 2 0 cbr 1000 ------- 0 2.0 1.0 46 86
- 0.583333 2 0 cbr 1000 ------- 0 2.0 1.0 47 87
- 0.584 2 0 cbr 1000 ------- 0 2.0 1.0 48 88
+ 0.6 2 0 cbr 1000 ------- 0 2.1 1.0 40 89
- 0.6 2 0 cbr 1000 ------- 0 2.1 1.0 40 89
+ 0.6 2 0 cbr 1000 ------- 0 2.1 1.0 41 90
+ 0.6 2 0 cbr 1000 ------- 0 2.1 1.0 42 91
+ 0.6 2 0 cbr 1000 ------- 0 2.1 1.0 43 92
r 0.600667 2 0 cbr 1000 ------- 0 2.1 1.0 32 67
+ 0.600667 0 1 cbr 1000 ------- 0 2.1 1.0 32 67
- 0.600667 0 1 cbr 1000 ------- 0 2.1 1.0 32 67
- 0.600667 2 0 cbr 1000 ------- 0 2.1 1.0 41 90
r 0.601333 2 0 cbr 1000 ------- 0 2.1 1.0 33 68
+ 0.601333 0 1 cbr 1000 ------- 0 2.1 1.0 33 68
- 0.601333 2 0 cbr 1000 ------- 0 2.1 1.0 42 91
- 0.602 0 1 cbr 1000 ------- 0 2.1 1.0 33 68
r 0.602 0 1 cbr 1000 ------- 0 2.1 1.0 16 37
r 0.602 2 0 cbr 1000 ------- 0 2.1 1.0 34 69
+ 0.602 0 1 cbr 1000 ------- 0 2.1 1.0 34 69
- 0.602 2 0 cbr 1000 ------- 0 2.1 1.0 43 92
r 0.602667 2 0 cbr 1000 ------- 0 2.1 1.0 35 70
+ 0.602667 0 1 cbr 1000 ------- 0 2.1 1.0 35 70
- 0.603333 0 1 cbr 1000 ------- 0 2.1 1.0 34 69
r 0.603333 0 1 cbr 1000 ------- 0 2.1 1.0 17 38
r 0.603333 2 0 cbr 1000 ------- 0 2.0 1.0 35 71
+ 0.603333 0 1 cbr 1000 ------- 0 2.0 1.0 35 71
r 0.604 2 0 cbr 1000 ------- 0 2.0 1.0 36 72
+ 0.604 0 1 cbr 1000 ------- 0 2.0 1.0 36 72
- 0.604667 0 1 cbr 1000 ------- 0 2.1 1.0 35 70
r 0.604667 0 1 cbr 1000 ------- 0 2.1 1.0 18 39
r 0.604667 2 0 cbr 1000 ------- 0 2.0 1.0 37 73
+ 0.604667 0 1 cbr 1000 ------- 0 2.0 1.0 37 73
r 0.605333 2 0 cbr 1000 ------- 0 2.0 1.0 38 74
+ 0.605333 0 1 cbr 1000 ------- 0 2.0 1.0 38 74
- 0.606 0 1 cbr 1000 ------- 0 2.0 1.0 35 71
r 0.606 0 1 cbr 1000 ------- 0 2.1 1.0 19 40
r 0.606 2 0 cbr 1000 ------- 0 2.0 1.0 39 75
+ 0.606 0 1 cbr 1000 ------- 0 2.0 1.0 39 75
r 0.606667 2 0 cbr 1000 ------- 0 2.0 1.0 40 76
+ 0.606667 0 1 cbr 1000 ------- 0 2.0 1.0 40 76
- 0.607333 0 1 cbr 1000 ------- 0 2.0 1.0 36 72
r 0.607333 2 0 cbr 1000 ------- 0 2.0 1.0 41 77
+ 0.607333 0 1 cbr 1000 ------- 0 2.0 1.0 41 77
- 0.608667 0 1 cbr 1000 ------- 0 2.0 1.0 37 73
- 0.61 0 1 cbr 1000 ------- 0 2.0 1.0 38 74
- 0.611333 0 1 cbr 1000 ------- 0 2.0 1.0 39 75
- 0.612667 0 1 cbr 1000 ------- 0 2.0 1.0 40 76
- 0.614 0 1 cbr 1000 ------- 0 2.0 1.0 41 77
r 0.642 0 1 cbr 1000 ------- 0 2.0 1.0 21 41
r 0.643333 0 1 cbr 1000 ------- 0 2.0 1.0 22 42
r 0.644667 0 1 cbr 1000 ------- 0 2.0 1.0 23 43
r 0.646 0 1 cbr 1000 ------- 0 2.0 1.0 24 44
r 0.647333 0 1 cbr 1000 ------- 0 2.0 1.0 25 45
r 0.648667 0 1 cbr 1000 ------- 0 2.0 1.0 26 46
+ 0.65 2 0 cbr 1000 ------- 0 2.1 1.0 44 93
- 0.65 2 0 cbr 1000 ------- 0 2.1 1.0 44 93
+ 0.65 2 0 cbr 1000 ------- 0 2.1 1.0 45 94
+ 0.65 2 0 cbr 1000 ------- 0 2.1 1.0 46 95
+ 0.65 2 0 cbr 1000 ------- 0 2.1 1.0 47 96
r 0.65 0 1 cbr 1000 ------- 0 2.0 1.0 27 47
r 0.650667 2 0 cbr 1000 ------- 0 2.1 1.0 36 78
+ 0.650667 0 1 cbr 1000 ------- 0 2.1 1.0 36 78
- 0.650667 0 1 cbr 1000 ------- 0 2.1 1.0 36 78
- 0.650667 2 0 cbr 1000 ------- 0 2.1 1.0 45 94
r 0.651333 2 0 cbr 1000 ------- 0 2.1 1.0 37 79
+ 0.651333 0 1 cbr 1000 ------- 0 2.1 1.0 37 79
- 0.651333 2 0 cbr 1000 ------- 0 2.1 1.0 46 95
- 0.652 0 1 cbr 1000 ------- 0 2.1 1.0 37 79
r 0.652 0 1 cbr 1000 ------- 0 2.1 1.0 20 48
r 0.652 2 0 cbr 1000 ------- 0 2.1 1.0 38 80
+ 0.652 0 1 cbr 1000 ------- 0 2.1 1.0 38 80
- 0.652 2 0 cbr 1000 ------- 0 2.1 1.0 47 96
r 0.652667 2 0 cbr 1000 ------- 0 2.1 1.0 39 81
+ 0.652667 0 1 cbr 1000 ------- 0 2.1 1.0 39 81
- 0.653333 0 1 cbr 1000 ------- 0 2.1 1.0 38 80
r 0.653333 0 1 cbr 1000 ------- 0 2.1 1.0 21 49
- 0.654667 0 1 cbr 1000 ------- 0 2.1 1.0 39 81
r 0.654667 0 1 cbr 1000 ------- 0 2.1 1.0 22 50
r 0.656 0 1 cbr 1000 ------- 0 2.1 1.0 23 51
+ 0.66 2 0 cbr 1000 ------- 0 2.0 1.0 49 97
- 0.66 2 0 cbr 1000 ------- 0 2.0 1.0 49 97
+ 0.66 2 0 cbr 1000 ------- 0 2.0 1.0 50 98
+ 0.66 2 0 cbr 1000 ------- 0 2.0 1.0 51 99
+ 0.66 2 0 cbr 1000 ------- 0 2.0 1.0 52 100
+ 0.66 2 0 cbr 1000 ------- 0 2.0 1.0 53 101
+ 0.66 2 0 cbr 1000 ------- 0 2.0 1.0 54 102
+ 0.66 2 0 cbr 1000 ------- 0 2.0 1.0 55 103
- 0.660667 2 0 cbr 1000 ------- 0 2.0 1.0 50 98
- 0.661333 2 0 cbr 1000 ------- 0 2.0 1.0 51 99
- 0.662 2 0 cbr 1000 ------- 0 2.0 1.0 52 100
- 0.662667 2 0 cbr 1000 ------- 0 2.0 1.0 53 101
- 0.663333 2 0 cbr 1000 ------- 0 2.0 1.0 54 102
- 0.664 2 0 cbr 1000 ------- 0 2.0 1.0 55 103
r 0.680667 2 0 cbr 1000 ------- 0 2.0 1.0 42 82
+ 0.680667 0 1 cbr 1000 ------- 0 2.0 1.0 42 82
- 0.680667 0 1 cbr 1000 ------- 0 2.0 1.0 42 82
r 0.681333 2 0 cbr 1000 ------- 0 2.0 1.0 43 83
+ 0.681333 0 1 cbr 1000 ------- 0 2.0 1.0 43 83
- 0.682 0 1 cbr 1000 ------- 0 2.0 1.0 43 83
r 0.682 2 0 cbr 1000 ------- 0 2.0 1.0 44 84
+ 0.682 0 1 cbr 1000 ------- 0 2.0 1.0 44 84
r 0.682667 2 0 cbr 1000 ------- 0 2.0 1.0 45 85
+ 0.682667 0 1 cbr 1000 ------- 0 2.0 1.0 45 85
- 0.683333 0 1 cbr 1000 ------- 0 2.0 1.0 44 84
r 0.683333 2 0 cbr 1000 ------- 0 2.0 1.0 46 86
+ 0.683333 0 1 cbr 1000 ------- 0 2.0 1.0 46 86
r 0.684 2 0 cbr 1000 ------- 0 2.0 1.0 47 87
+ 0.684 0 1 cbr 1000 ------- 0 2.0 1.0 47 87
- 0.684667 0 1 cbr 1000 ------- 0 2.0 1.0 45 85
r 0.684667 2 0 cbr 1000 ------- 0 2.0 1.0 48 88
+ 0.684667 0 1 cbr 1000 ------- 0 2.0 1.0 48 88
- 0.686 0 1 cbr 1000 ------- 0 2.0 1.0 46 86
- 0.687333 0 1 cbr 1000 ------- 0 2.0 1.0 47 87
- 0.688667 0 1 cbr 1000 ------- 0 2.0 1.0 48 88
+ 0.7 2 0 cbr 1000 ------- 0 2.1 1.0 48 104
- 0.7 2 0 cbr 1000 ------- 0 2.1 1.0 48 104
+ 0.7 2 0 cbr 1000 ------- 0 2.1 1.0 49 105
+ 0.7 2 0 cbr 1000 ------- 0 2.1 1.0 50 106
+ 0.7 2 0 cbr 1000 ------- 0 2.1 1.0 51 107
r 0.700667 2 0 cbr 1000 ------- 0 2.1 1.0 40 89
+ 0.700667 0 1 cbr 1000 ------- 0 2.1 1.0 40 89
- 0.700667 0 1 cbr 1000 ------- 0 2.1 1.0 40 89
- 0.700667 2 0 cbr 1000 ------- 0 2.1 1.0 49 105
r 0.701333 2 0 cbr 1000 ------- 0 2.1 1.0 41 90
+ 0.701333 0 1 cbr 1000 ------- 0 2.1 1.0 41 90
- 0.701333 2 0 cbr 1000 ------- 0 2.1 1.0 50 106
r 0.702 0 1 cbr 1000 ------- 0 2.1 1.0 24 52
- 0.702 0 1 cbr 1000 ------- 0 2.1 1.0 41 90
r 0.702 2 0 cbr 1000 ------- 0 2.1 1.0 42 91
+ 0.702 0 1 cbr 1000 ------- 0 2.1 1.0 42 91
- 0.702 2 0 cbr 1000 ------- 0 2.1 1.0 51 107
r 0.702667 2 0 cbr 1000 ------- 0 2.1 1.0 43 92
+ 0.702667 0 1 cbr 1000 ------- 0 2.1 1.0 43 92
r 0.703333 0 1 cbr 1000 ------- 0 2.1 1.0 25 53
- 0.703333 0 1 cbr 1000 ------- 0 2.1 1.0 42 91
r 0.704667 0 1 cbr 1000 ------- 0 2.1 1.0 26 54
- 0.704667 0 1 cbr 1000 ------- 0 2.1 1.0 43 92
r 0.706 0 1 cbr 1000 ------- 0 2.1 1.0 27 55
r 0.722 0 1 cbr 1000 ------- 0 2.0 1.0 28 56
r 0.723333 0 1 cbr 1000 ------- 0 2.0 1.0 29 57
r 0.724667 0 1 cbr 1000 ------- 0 2.0 1.0 30 58
r 0.726 0 1 cbr 1000 ------- 0 2.0 1.0 31 59
r 0.727333 0 1 cbr 1000 ------- 0 2.0 1.0 32 60
r 0.728667 0 1 cbr 1000 ------- 0 2.0 1.0 33 61
r 0.73 0 1 cbr 1000 ------- 0 2.0 1.0 34 62
+ 0.74 2 0 cbr 1000 ------- 0 2.0 1.0 56 108
- 0.74 2 0 cbr 1000 ------- 0 2.0 1.0 56 108
+ 0.74 2 0 cbr 1000 ------- 0 2.0 1.0 57 109
+ 0.74 2 0 cbr 1000 ------- 0 2.0 1.0 58 110
+ 0.74 2 0 cbr 1000 ------- 0 2.0 1.0 59 111
+ 0.74 2 0 cbr 1000 ------- 0 2.0 1.0 60 112
+ 0.74 2 0 cbr 1000 ------- 0 2.0 1.0 61 113
+ 0.74 2 0 cbr 1000 ------- 0 2.0 1.0 62 114
- 0.740667 2 0 cbr 1000 ------- 0 2.0 1.0 57 109
- 0.741333 2 0 cbr 1000 ------- 0 2.0 1.0 58 110
- 0.742 2 0 cbr 1000 ------- 0 2.0 1.0 59 111
- 0.742667 2 0 cbr 1000 ------- 0 2.0 1.0 60 112
- 0.743333 2 0 cbr 1000 ------- 0 2.0 1.0 61 113
- 0.744 2 0 cbr 1000 ------- 0 2.0 1.0 62 114
+ 0.75 2 0 cbr 1000 ------- 0 2.1 1.0 52 115
- 0.75 2 0 cbr 1000 ------- 0 2.1 1.0 52 115
+ 0.75 2 0 cbr 1000 ------- 0 2.1 1.0 53 116
+ 0.75 2 0 cbr 1000 ------- 0 2.1 1.0 54 117
+ 0.75 2 0 cbr 1000 ------- 0 2.1 1.0 55 118
r 0.750667 2 0 cbr 1000 ------- 0 2.1 1.0 44 93
+ 0.750667 0 1 cbr 1000 ------- 0 2.1 1.0 44 93
- 0.750667 0 1 cbr 1000 ------- 0 2.1 1.0 44 93
- 0.750667 2 0 cbr 1000 ------- 0 2.1 1.0 53 116
r 0.751333 2 0 cbr 1000 ------- 0 2.1 1.0 45 94
+ 0.751333 0 1 cbr 1000 ------- 0 2.1 1.0 45 94
- 0.751333 2 0 cbr 1000 ------- 0 2.1 1.0 54 117
r 0.752 0 1 cbr 1000 ------- 0 2.1 1.0 28 63
- 0.752 0 1 cbr 1000 ------- 0 2.1 1.0 45 94
r 0.752 2 0 cbr 1000 ------- 0 2.1 1.0 46 95
+ 0.752 0 1 cbr 1000 ------- 0 2.1 1.0 46 95
- 0.752 2 0 cbr 1000 ------- 0 2.1 1.0 55 118
r 0.752667 2 0 cbr 1000 ------- 0 2.1 1.0 47 96
+ 0.752667 0 1 cbr 1000 ------- 0 2.1 1.0 47 96
r 0.753333 0 1 cbr 1000 ------- 0 2.1 1.0 29 64
- 0.753333 0 1 cbr 1000 ------- 0 2.1 1.0 46 95
r 0.754667 0 1 cbr 1000 ------- 0 2.1 1.0 30 65
- 0.754667 0 1 cbr 1000 ------- 0 2.1 1.0 47 96
r 0.756 0 1 cbr 1000 ------- 0 2.1 1.0 31 66
r 0.760667 2 0 cbr 1000 ------- 0 2.0 1.0 49 97
+ 0.760667 0 1 cbr 1000 ------- 0 2.0 1.0 49 97
- 0.760667 0 1 cbr 1000 ------- 0 2.0 1.0 49 97
r 0.761333 2 0 cbr 1000 ------- 0 2.0 1.0 50 98
+ 0.761333 0 1 cbr 1000 ------- 0 2.0 1.0 50 98
- 0.762 0 1 cbr 1000 ------- 0 2.0 1.0 50 98
r 0.762 2 0 cbr 1000 ------- 0 2.0 1.0 51 99
+ 0.762 0 1 cbr 1000 ------- 0 2.0 1.0 51 99
r 0.762667 2 0 cbr 1000 ------- 0 2.0 1.0 52 100
+ 0.762667 0 1 cbr 1000 ------- 0 2.0 1.0 52 100
- 0.763333 0 1 cbr 1000 ------- 0 2.0 1.0 51 99
r 0.763333 2 0 cbr 1000 ------- 0 2.0 1.0 53 101
+ 0.763333 0 1 cbr 1000 ------- 0 2.0 1.0 53 101
r 0.764 2 0 cbr 1000 ------- 0 2.0 1.0 54 102
+ 0.764 0 1 cbr 1000 ------- 0 2.0 1.0 54 102
- 0.764667 0 1 cbr 1000 ------- 0 2.0 1.0 52 100
r 0.764667 2 0 cbr 1000 ------- 0 2.0 1.0 55 103
+ 0.764667 0 1 cbr 1000 ------- 0 2.0 1.0 55 103
- 0.766 0 1 cbr 1000 ------- 0 2.0 1.0 53 101
- 0.767333 0 1 cbr 1000 ------- 0 2.0 1.0 54 102
- 0.768667 0 1 cbr 1000 ------- 0 2.0 1.0 55 103
+ 0.8 2 0 cbr 1000 ------- 0 2.1 1.0 56 119
- 0.8 2 0 cbr 1000 ------- 0 2.1 1.0 56 119
+ 0.8 2 0 cbr 1000 ------- 0 2.1 1.0 57 120
+ 0.8 2 0 cbr 1000 ------- 0 2.1 1.0 58 121
+ 0.8 2 0 cbr 1000 ------- 0 2.1 1.0 59 122
r 0.800667 2 0 cbr 1000 ------- 0 2.1 1.0 48 104
+ 0.800667 0 1 cbr 1000 ------- 0 2.1 1.0 48 104
- 0.800667 0 1 cbr 1000 ------- 0 2.1 1.0 48 104
- 0.800667 2 0 cbr 1000 ------- 0 2.1 1.0 57 120
r 0.801333 2 0 cbr 1000 ------- 0 2.1 1.0 49 105
+ 0.801333 0 1 cbr 1000 ------- 0 2.1 1.0 49 105
- 0.801333 2 0 cbr 1000 ------- 0 2.1 1.0 58 121
r 0.802 0 1 cbr 1000 ------- 0 2.1 1.0 32 67
- 0.802 0 1 cbr 1000 ------- 0 2.1 1.0 49 105
r 0.802 2 0 cbr 1000 ------- 0 2.1 1.0 50 106
+ 0.802 0 1 cbr 1000 ------- 0 2.1 1.0 50 106
- 0.802 2 0 cbr 1000 ------- 0 2.1 1.0 59 122
r 0.802667 2 0 cbr 1000 ------- 0 2.1 1.0 51 107
+ 0.802667 0 1 cbr 1000 ------- 0 2.1 1.0 51 107
r 0.803333 0 1 cbr 1000 ------- 0 2.1 1.0 33 68
- 0.803333 0 1 cbr 1000 ------- 0 2.1 1.0 50 106
r 0.804667 0 1 cbr 1000 ------- 0 2.1 1.0 34 69
- 0.804667 0 1 cbr 1000 ------- 0 2.1 1.0 51 107
r 0.806 0 1 cbr 1000 ------- 0 2.1 1.0 35 70
r 0.807333 0 1 cbr 1000 ------- 0 2.0 1.0 35 71
r 0.808667 0 1 cbr 1000 ------- 0 2.0 1.0 36 72
r 0.81 0 1 cbr 1000 ------- 0 2.0 1.0 37 73
r 0.811333 0 1 cbr 1000 ------- 0 2.0 1.0 38 74
r 0.812667 0 1 cbr 1000 ------- 0 2.0 1.0 39 75
r 0.814 0 1 cbr 1000 ------- 0 2.0 1.0 40 76
r 0.815333 0 1 cbr 1000 ------- 0 2.0 1.0 41 77
+ 0.82 2 0 cbr 1000 ------- 0 2.0 1.0 63 123
- 0.82 2 0 cbr 1000 ------- 0 2.0 1.0 63 123